
FAST Summary File

Predictions were generated on 14-Nov-2023 at 16:13:22 using OpenFAST, compiled as a DLL S-Function for Simulink as a 64-bit application using single precision at commit v3.5.0
  compiled with
    NWTC Subroutine Library
    ElastoDyn
    BeamDyn (unknown version, unknown date) [not called]
    InflowWind
    AeroDyn14 (unknown version, unknown date) [not called]
    AeroDyn
    ServoDyn
    HydroDyn (unknown version, unknown date) [not called]
    SubDyn (unknown version, unknown date) [not called]
    ExtPtfm_MCKF (unknown version, unknown date) [not called]
    MAP (unknown version, unknown date) [not called]
    FEAMooring (unknown version, unknown date) [not called]
    MoorDyn (unknown version, unknown date) [not called]
    OrcaFlexInterface (unknown version, unknown date) [not called]
    IceFloe (unknown version, unknown date) [not called]
    IceDyn (unknown version, unknown date) [not called]


Modeling a land-based turbine
Description from the FAST input file: 
  FAST Certification Test #13: WindPACT 1.5 MW Baseline with many DOFs with VS and VP and FF turbulence.

Interpolation order for input/output time histories: 2 (quadratic)
Number of correction iterations:  0


   Requested Time Steps  
  -------------------------------------------------
  Component          Time Step (s)    Subcycles (-)
  -----------------  ---------------  -------------
  FAST (glue code)    5.000E-03
  InflowWind          5.000E-03              1
  ElastoDyn           5.000E-03              1
  AeroDyn             5.000E-03              1
  ServoDyn            5.000E-03              1
  FAST output files   5.000E-02             10^-1


   Requested Channels in FAST Output File(s)  
  --------------------------------------------
  Number  Name                  Units                 Generated by
  ------  --------------------  --------------------  ------------
       1  Time                  (s)                   OpenFAST
       2  Wind1VelX             (m/s)                 InflowWind
       3  Wind1VelY             (m/s)                 InflowWind
       4  Wind1VelZ             (m/s)                 InflowWind
       5  GenSpeed              (rpm)                 ElastoDyn
       6  RotSpeed              (rpm)                 ElastoDyn
       7  YawBrTDxt             (m)                   ElastoDyn
       8  YawBrTAxp             (m/s^2)               ElastoDyn
       9  TipDxb1               (m)                   ElastoDyn
      10  TipDxb2               (m)                   ElastoDyn
      11  TipDxb3               (m)                   ElastoDyn
      12  TipALxb1              (m/s^2)               ElastoDyn
      13  TipALxb2              (m/s^2)               ElastoDyn
      14  TipALxb3              (m/s^2)               ElastoDyn
      15  QD_DrTr               (rad/s)               ElastoDyn
      16  Q_DrTr                (rad)                 ElastoDyn
      17  LSShftFys             (kN)                  ElastoDyn
      18  LSShftFzs             (kN)                  ElastoDyn
      19  LSSTipMys             (kN-m)                ElastoDyn
      20  LSSTipMzs             (kN-m)                ElastoDyn
      21  YawBrTDxp             (m)                   ElastoDyn
      22  YawBrTDyp             (m)                   ElastoDyn
      23  YawBrMxn              (kN-m)                ElastoDyn
      24  YawBrMyn              (kN-m)                ElastoDyn
      25  YawBrMzn              (kN-m)                ElastoDyn
      26  RtSkew                (deg)                 AeroDyn
      27  GenTq                 (kN-m)                ServoDyn
      28  GenPwr                (kW)                  ServoDyn
